LAMMPS data file via write_data, version 7 Aug 2019, timestep = 1501

21434 atoms
2 atom types

0.0000000000000000e+00 1.2933305841895200e+01 xlo xhi
1.2445079348883199e+00 1.9912126958213199e+02 ylo yhi
0.0000000000000000e+00 1.9145228263963691e+02 zlo zhi

Masses

1 58.7
2 58.7

Atoms # atomic

3678 1 2.7944426313657362e+00 3.0825029577050094e+00 2.2932292889376571e+00 0 0 0
3679 1 6.3822973939010552e-01 4.3171739853871260e+00 2.2925148449816124e+00 0 0 0
3680 1 6.3928422678945518e-01 1.8475088061479805e+00 2.2931566872042568e+00 0 0 0
3681 1 2.7932668631409876e+00 5.5520678986337888e+00 2.2918346211999210e+00 0 0 0
4172 1 3.5516708356409303e+00 1.8585437673600889e+00 8.9649675418613171e+01 0 0 0
4595 1 6.8760352509133615e-01 1.8585213861536936e+00 8.7648140770164204e+01 0 0 0
3868 1 7.8630691940521205e+00 1.1903745975470413e+01 8.9639398494411466e+01 0 0 0
4122 1 5.7075841676907357e+00 1.3159371703383968e+01 8.9636701075010038e+01 0 0 0
4149 1 5.7074590782924002e+00 1.0648113000822761e+01 8.9641782094388645e+01 0 0 0
4124 1 3.5519672373308744e+00 1.1903745990714111e+01 8.9639398462400294e+01 0 0 0
3515 1 7.1044121563943721e+00 5.5519305406079003e+00 2.2918935048508651e+00 0 0 0
3517 1 4.9494751553229070e+00 4.3172229764284298e+00 2.2927821201787433e+00 0 0 0
3525 1 4.9507153242007362e+00 1.8475535846212525e+00 2.2936663613846182e+00 0 0 0
3526 1 7.1056145993855662e+00 3.0821724626176867e+00 2.2932769322239808e+00 0 0 0
4523 1 1.3963571228454872e+00 1.0648112970828587e+01 8.9641782073532895e+01 0 0 0
4524 1 1.3964821975165849e+00 1.3159371705614872e+01 8.9636701065231591e+01 0 0 0
3882 1 1.0018462138727520e+01 8.1368286317713796e+00 8.9645607992693343e+01 0 0 0
3741 1 1.2173973089425399e+01 6.8811786732655538e+00 8.9647050166262218e+01 0 0 0
3204 1 1.1416505851639716e+01 3.0820535073256856e+00 2.2929000328657883e+00 0 0 0
3205 1 9.2604997535337485e+00 4.3169667934029148e+00 2.2925890569927350e+00 0 0 0
3206 1 9.2615920313284636e+00 1.8470050334678276e+00 2.2932055484211715e+00 0 0 0
3207 1 1.1415424570910290e+01 5.5518735092110880e+00 2.2917096959721963e+00 0 0 0
3740 1 1.2174059352544504e+01 9.3924735959806345e+00 8.9643851942542597e+01 0 0 0
3869 1 7.8629574280277357e+00 9.3924736493694692e+00 8.9643851942217879e+01 0 0 0
3667 1 2.7920201470299322e+00 8.0216180136739155e+00 2.2892471312136333e+00 0 0 0
3668 1 6.3578972240887333e-01 9.2563661593321580e+00 2.2874631275251751e+00 0 0 0
3669 1 6.3707597308489983e-01 6.7867956567849657e+00 2.2906259397804174e+00 0 0 0
3880 1 7.8628711517174965e+00 6.8811787029494846e+00 8.9647050159770941e+01 0 0 0
4146 1 5.7073601832919021e+00 8.1368286473895743e+00 8.9645608005611578e+01 0 0 0
4147 1 3.5518554568367220e+00 9.3924736294256395e+00 8.9643851911123761e+01 0 0 0
4148 1 3.5517691965734723e+00 6.8811787100556572e+00 8.9647050200402504e+01 0 0 0
3501 1 4.9469166347230544e+00 9.2563780593864617e+00 2.2875195322352657e+00 0 0 0
3516 1 4.9482376304371991e+00 6.7868221346765987e+00 2.2907520242617694e+00 0 0 0
3518 1 7.1031443820294298e+00 8.0215602619902633e+00 2.2892882850552865e+00 0 0 0
4558 1 1.3962582215224237e+00 8.1368286217389461e+00 8.9645607984932184e+01 0 0 0
3879 1 1.0018388229408233e+01 5.6255245368834723e+00 8.9648178242553655e+01 0 0 0
3893 1 1.0018339001350885e+01 3.1142064391069497e+00 8.9649491200338488e+01 0 0 0
3194 1 1.1414209008797144e+01 8.0215361581901004e+00 2.2892045289004344e+00 0 0 0
3195 1 9.2580099404226583e+00 9.2563301522900705e+00 2.2874962695722871e+00 0 0 0
3196 1 9.2593140103874454e+00 6.7867079485752990e+00 2.2906807232559325e+00 0 0 0
3743 1 1.2173874718693753e+01 1.8585437522714197e+00 8.9649675428256572e+01 0 0 0
3742 1 1.2173911477515762e+01 4.3698668953416986e+00 8.9648992057883703e+01 0 0 0
3655 1 2.7891191259761290e+00 1.2960722791960062e+01 2.2803395878118184e+00 0 0 0
3657 1 6.3434886523159351e-01 1.1725926197190038e+01 2.2830260327852638e+00 0 0 0
3670 1 2.7906484529396236e+00 1.0491157170122495e+01 2.2854206689477530e+00 0 0 0
3881 1 7.8628095297797245e+00 4.3698669213275201e+00 8.9648992042523972e+01 0 0 0
3892 1 7.8627727704198724e+00 1.8585437986532252e+00 8.9649675405882050e+01 0 0 0
4170 1 5.7072370379299011e+00 3.1142064582676880e+00 8.9649491220818533e+01 0 0 0
4173 1 5.7072862751560480e+00 5.6255245816460659e+00 8.9648178261407054e+01 0 0 0
4171 1 3.5517075943311149e+00 4.3698669230637384e+00 8.9648992067128177e+01 0 0 0
3499 1 7.1017611177367366e+00 1.0491136179322275e+01 2.2854450411140377e+00 0 0 0
3500 1 4.9454625571901136e+00 1.1725932457214373e+01 2.2830519573202919e+00 0 0 0
3502 1 7.1002263866144544e+00 1.2960724502464561e+01 2.2803535676468663e+00 0 0 0
4557 1 1.3961843589585761e+00 5.6255245452671412e+00 8.9648178289476022e+01 0 0 0
4592 1 1.3961350882510239e+00 3.1142064402152139e+00 8.9649491228361029e+01 0 0 0
3739 1 1.2174171142341024e+01 1.1903745953275056e+01 8.9639398487730418e+01 0 0 0
3176 1 1.1411319303909757e+01 1.2960718157886745e+01 2.2803349616650421e+00 0 0 0
3178 1 9.2565604605645948e+00 1.1725917448105402e+01 2.2830448500973506e+00 0 0 0
3197 1 1.1412846782950048e+01 1.0491125998324945e+01 2.2854075813086387e+00 0 0 0
4690 1 1.2930317740924258e+01 6.5815083109339227e+01 8.5215634282561126e+01 -1 0 0
3643 1 2.7854854104785187e+00 1.7900143684319936e+01 2.2664241638699347e+00 0 0 0
3645 1 6.3091694466927817e-01 1.6665238880987541e+01 2.2703621272162189e+00 0 0 0
3656 1 6.3273211690994891e-01 1.4195530730348050e+01 2.2773218594892541e+00 0 0 0
3658 1 2.7874063606381032e+00 1.5430366035332142e+01 2.2740037777493045e+00 0 0 0
3757 1 1.0773368454494687e+01 6.4562957149152126e+01 8.5230742841965366e+01 0 0 0
3756 1 1.0776244289755274e+01 6.7067034140127063e+01 8.5200371589479957e+01 0 0 0
3755 1 1.1487717543007196e+01 6.5834140943129484e+01 8.7241707596168695e+01 0 0 0
3753 1 9.3306196299601982e+00 6.4582031101726344e+01 8.7256723422420890e+01 0 0 0
3747 1 9.3337956791116508e+00 6.7086037714852040e+01 8.7226543165043623e+01 0 0 0
3870 1 1.0018686106522892e+01 1.3159371674296427e+01 8.9636701070395901e+01 0 0 0
3476 1 7.0985109369901762e+00 1.5430390762312738e+01 2.2740117671927971e+00 0 0 0
3477 1 4.9420279012145043e+00 1.6665252148129795e+01 2.2703740107124415e+00 0 0 0
3478 1 4.9438420953041398e+00 1.4195537618190825e+01 2.2773364940418994e+00 0 0 0
3479 1 7.0965872599172242e+00 1.7900203172179260e+01 2.2664260303311550e+00 0 0 0
3867 1 1.0018561044585365e+01 1.0648112973226205e+01 8.9641782089937266e+01 0 0 0
3911 1 7.1766156117615090e+00 6.5834140945409075e+01 8.7241707575583021e+01 0 0 0
3912 1 5.0226937159859268e+00 6.7086037719370680e+01 8.7226543134498101e+01 0 0 0
3913 1 5.0195176984342158e+00 6.4582031126648616e+01 8.7256723389428544e+01 0 0 0
3150 1 1.1407678652324226e+01 1.7900185368734476e+01 2.2664142267877030e+00 0 0 0
3152 1 9.2531225199307094e+00 1.6665279279594124e+01 2.2703676078324211e+00 0 0 0
3177 1 9.2549399499076817e+00 1.4195543426037764e+01 2.2773326982817861e+00 0 0 0
3179 1 1.1409604870377105e+01 1.5430381894271999e+01 2.2739991564285882e+00 0 0 0
3914 1 6.4651423412347091e+00 6.7067034175067619e+01 8.5200371568541684e+01 0 0 0
3924 1 6.4622664719109153e+00 6.4562957209862262e+01 8.5230742840785766e+01 0 0 0
3633 1 6.2658782095576893e-01 2.1605200604625630e+01 2.2527659362439900e+00 0 0 0
3644 1 6.2887827373699079e-01 1.9135110339867985e+01 2.2621657863867544e+00 0 0 0
3646 1 2.7833301372600450e+00 2.0370113425902300e+01 2.2576241403257065e+00 0 0 0
3926 1 8.6192157987136184e+00 6.5815083145399541e+01 8.5215634286947434e+01 0 0 0
4490 1 1.3968213677786510e+00 1.8181783548676488e+01 8.9622771278044226e+01 0 0 0
4489 1 1.3966358149662699e+00 1.5670597897882841e+01 8.9630364590692068e+01 0 0 0
4123 1 3.5521062229110147e+00 1.4414989322872982e+01 8.9633689817749996e+01 0 0 0
3452 1 7.0944245934455319e+00 2.0370235995300760e+01 2.2576114921100969e+00 0 0 0
3453 1 4.9377067893193507e+00 2.1605267887374971e+01 2.2527704179877301e+00 0 0 0
3454 1 4.9399928814688030e+00 1.9135139697335447e+01 2.2621768967641631e+00 0 0 0
4231 1 7.1159177969786247e-01 6.7086037742408749e+01 8.7226543126868634e+01 0 0 0
4235 1 7.0841575659376366e-01 6.4582031108184026e+01 8.7256723419258208e+01 0 0 0
4237 1 2.8655136556435585e+00 6.5834140951193021e+01 8.7241707565328809e+01 0 0 0
3119 1 9.2487775674685277e+00 2.1605379224265896e+01 2.2527389453578324e+00 0 0 0
3151 1 9.2510798850109737e+00 1.9135198219136377e+01 2.2621626255967984e+00 0 0 0
3153 1 1.1405511548861639e+01 2.0370197471700077e+01 2.2576016311844653e+00 0 0 0
4238 1 4.3081138347653924e+00 6.5815083140124131e+01 8.5215634265314279e+01 0 0 0
4239 1 2.1540403907058705e+00 6.7067034147812393e+01 8.5200371582108644e+01 0 0 0
3631 1 2.7809126972786515e+00 2.2840328006109566e+01 2.2476468544671424e+00 0 0 0
3632 1 6.2401659744367055e-01 2.4075547849573670e+01 2.2422222591792607e+00 0 0 0
3634 1 2.7782069866703463e+00 2.5310817707059670e+01 2.2365733166290327e+00 0 0 0
4240 1 2.1511645130874966e+00 6.4562957177635425e+01 8.5230742841158204e+01 0 0 0
3767 1 1.0770806179956386e+01 6.2058211072996301e+01 8.5260413741675890e+01 0 0 0
3766 1 1.1482018817114707e+01 6.0824519058282611e+01 8.7300674321755935e+01 0 0 0
3754 1 9.3277714988442941e+00 6.2077210435725902e+01 8.7286224658142729e+01 0 0 0
3752 1 1.1484705909891469e+01 6.3329717718215882e+01 8.7271568806729235e+01 0 0 0
3428 1 7.0892226368129307e+00 2.5311286999130488e+01 2.2364240813094809e+00 0 0 0
3430 1 4.9351346893226014e+00 2.4075703853196998e+01 2.2422002513640322e+00 0 0 0
3455 1 7.0919853326907676e+00 2.2840570349430571e+01 2.2475946135979394e+00 0 0 0
3919 1 7.1709168696983792e+00 6.0824519068463843e+01 8.7300674327186400e+01 0 0 0
3920 1 5.0166695592119002e+00 6.2077210463956497e+01 8.7286224643048058e+01 0 0 0
3922 1 7.1736039543911678e+00 6.3329717701800078e+01 8.7271568773754908e+01 0 0 0
3117 1 1.1403068816105764e+01 2.2840486382675770e+01 2.2475962811755297e+00 0 0 0
3118 1 9.2461728000892638e+00 2.4075904634625850e+01 2.2421315166486568e+00 0 0 0
3120 1 1.1400312282666116e+01 2.5311107928044621e+01 2.2364586620088587e+00 0 0 0
3923 1 8.6164977342776865e+00 6.3310664009266794e+01 8.5245675644323143e+01 0 0 0
3619 1 2.7751990996644391e+00 2.7781544259927099e+01 2.2245667916726117e+00 0 0 0
3620 1 6.1797605618626239e-01 2.9016813565069054e+01 2.2182780492179663e+00 0 0 0
3621 1 6.2114310420047958e-01 2.6546136382074621e+01 2.2306500462077916e+00 0 0 0
3622 1 2.7719285399024827e+00 3.0252260129756596e+01 2.2119947915602114e+00 0 0 0
3925 1 6.4597042092834123e+00 6.2058211097047497e+01 8.5260413729435811e+01 0 0 0
3942 1 8.6140877648295469e+00 6.0805606272890266e+01 8.5274940581927282e+01 0 0 0
4234 1 2.8625020238342986e+00 6.3329717715379900e+01 8.7271568769044819e+01 0 0 0
4236 1 7.0556758151725074e-01 6.2077210454752908e+01 8.7286224662499606e+01 0 0 0
4247 1 2.8598149375047592e+00 6.0824519048472432e+01 8.7300674317058338e+01 0 0 0
4248 1 4.3029858152990608e+00 6.0805606235671711e+01 8.5274940590446320e+01 0 0 0
3404 1 7.0825844440808785e+00 3.0253873804771029e+01 2.2112646669968012e+00 0 0 0
3406 1 4.9289991117453802e+00 2.9017581428455436e+01 2.2180719742209956e+00 0 0 0
3429 1 4.9322382303186627e+00 2.6546492800526025e+01 2.2305589196791260e+00 0 0 0
3431 1 7.0860884654314544e+00 2.7782428435110820e+01 2.2242103976943315e+00 0 0 0
4249 1 2.1486022583567630e+00 6.2058211076915164e+01 8.5260413745716107e+01 0 0 0
4251 1 4.3053957589478058e+00 6.3310664006732267e+01 8.5245675624170403e+01 0 0 0
4689 1 1.2927599683272270e+01 6.3310663969957091e+01 8.5245675636605029e+01 -1 0 0
4694 1 1.2925189717878494e+01 6.0805606232084429e+01 8.5274940586379614e+01 -1 0 0
3083 1 1.1397212203623623e+01 2.7782072821409045e+01 2.2242949695198813e+00 0 0 0
3084 1 9.2398815279926065e+00 2.9018182932397259e+01 2.2176947114537704e+00 0 0 0
3085 1 9.2432172350280144e+00 2.6546842452228844e+01 2.2304040888133927e+00 0 0 0
3086 1 1.1393787313705298e+01 3.0253271299381574e+01 2.2112860695017549e+00 0 0 0
3779 1 1.0766562502850395e+01 5.7046955754891776e+01 8.5317117435111783e+01 0 0 0
3768 1 1.0768544159603197e+01 5.9552857096822848e+01 8.5289241663270303e+01 0 0 0
3607 1 2.7687507403396832e+00 3.2722053515275519e+01 2.1998342148221872e+00 0 0 0
3608 1 6.1192483520463470e-01 3.3955822283568473e+01 2.1928395718377329e+00 0 0 0
3609 1 6.1462177191533340e-01 3.1487117132913614e+01 2.2055383715133767e+00 0 0 0
3765 1 9.3230129734334941e+00 5.7065434805916496e+01 8.7342648136025744e+01 0 0 0
3764 1 9.3252418445516909e+00 5.9571653104187220e+01 8.7314903150053226e+01 0 0 0
3763 1 1.1479642078366947e+01 5.8318621951066497e+01 8.7328898232992444e+01 0 0 0
3921 1 5.0141399109863469e+00 5.9571653089458181e+01 8.7314903162652371e+01 0 0 0
3382 1 4.9224472712127030e+00 3.3958135247764353e+01 2.1948111481639496e+00 0 0 0
3405 1 4.9255324092732993e+00 3.1488574281883370e+01 2.2054042424676825e+00 0 0 0
3407 1 7.0788471436722373e+00 3.2725002295194834e+01 2.1986319725749959e+00 0 0 0
3936 1 5.0119110671999136e+00 5.7065434777502965e+01 8.7342648126540595e+01 0 0 0
3938 1 7.1685401340153110e+00 5.8318621974960507e+01 8.7328898249896369e+01 0 0 0
3939 1 8.6119687489398693e+00 5.8299971137997055e+01 8.5303304348730506e+01 0 0 0
3049 1 1.1390244251619896e+01 3.2724313996484632e+01 2.1977159731834801e+00 0 0 0
3050 1 9.2322749480212902e+00 3.3960342663300523e+01 2.1919171635481947e+00 0 0 0
3051 1 9.2362311284564775e+00 3.1489657697880652e+01 2.2043796833775713e+00 0 0 0
3940 1 6.4574421988230890e+00 5.9552857081130618e+01 8.5289241662002169e+01 0 0 0
3941 1 6.4554605800298823e+00 5.7046955739114189e+01 8.5317117435697554e+01 0 0 0
3597 1 2.7556554123348831e+00 3.7642571710374689e+01 2.2011919156667070e+00 0 0 0
3599 1 5.9941579019033420e-01 3.6415276398772320e+01 2.1942828851967797e+00 0 0 0
3610 1 2.7664444064221385e+00 3.5187812070094445e+01 2.1931525993036427e+00 0 0 0
4244 1 2.8574381907890190e+00 5.8318621920498281e+01 8.7328898249037451e+01 0 0 0
4245 1 7.0303794954687548e-01 5.9571653084946604e+01 8.7314903149320685e+01 0 0 0
4246 1 7.0080908564968514e-01 5.7065434766932491e+01 8.7342648115744041e+01 0 0 0
4250 1 2.1463402469375699e+00 5.9552857070844894e+01 8.5289241683923294e+01 0 0 0
4267 1 2.1443586166064152e+00 5.7046955729098279e+01 8.5317117443818034e+01 0 0 0
3380 1 7.0762502606371260e+00 3.5194083385770803e+01 2.1890766252918303e+00 0 0 0
3381 1 4.9217537777139784e+00 3.6421775549324380e+01 2.1942520016918028e+00 0 0 0
3383 1 7.0796435740149777e+00 3.7655803741492456e+01 2.1900286698633744e+00 0 0 0
4269 1 4.3008668007362036e+00 5.8299971078313042e+01 8.5303304388893366e+01 0 0 0
4693 1 1.2923070674424862e+01 5.8299971101597301e+01 8.5303304352717120e+01 -1 0 0
3791 1 1.0763344477391010e+01 5.2033741187660276e+01 8.5369693688523512e+01 0 0 0
3015 1 1.1388353767446462e+01 3.7662539162777030e+01 2.1754583355243997e+00 0 0 0
3017 1 9.2316366497333782e+00 3.6428852370894170e+01 2.1824020081019890e+00 0 0 0
3052 1 1.1385089089071787e+01 3.5194274202976025e+01 2.1855604049397273e+00 0 0 0
3780 1 1.0764837747832649e+01 5.4540565342785996e+01 8.5343956411443955e+01 0 0 0
3585 1 2.7733889809996306e+00 4.2575971703257544e+01 2.1383838400514956e+00 0 0 0
3587 1 6.1919783909514248e-01 4.1353469449514250e+01 2.1597273689238152e+00 0 0 0
3598 1 6.2991205997229671e-01 3.8887624998813479e+01 2.1481839917891596e+00 0 0 0
3600 1 2.7931354176742680e+00 4.0094565926967995e+01 2.1154635597150788e+00 0 0 0
3778 1 1.1477555629789075e+01 5.5812100464912575e+01 8.7356142714362946e+01 0 0 0
3777 1 9.3193673218155588e+00 5.2051299622745042e+01 8.7395012222535897e+01 0 0 0
3776 1 9.3210630725600918e+00 5.4558627685558697e+01 8.7369373261860389e+01 0 0 0
3775 1 1.1475736025342865e+01 5.3305024685714159e+01 8.7382332030680317e+01 0 0 0
3358 1 7.0926697984963845e+00 4.0110130918697458e+01 2.2067074489222485e+00 0 0 0
3359 1 4.9524098235637908e+00 4.1324051851717158e+01 2.1042420965444859e+00 0 0 0
3360 1 4.9307682346976875e+00 3.8873812378366203e+01 2.2138542098852825e+00 0 0 0
3361 1 7.1099162898513617e+00 4.2558688020863407e+01 2.0919282164801030e+00 0 0 0
3935 1 7.1664536775500833e+00 5.5812100478508356e+01 8.7356142754920754e+01 0 0 0
3937 1 5.0099611511714395e+00 5.4558627651065684e+01 8.7369373293554347e+01 0 0 0
2982 1 1.1419136541932540e+01 4.2591254455916371e+01 2.1551596683433756e+00 0 0 0
2984 1 9.2548781429011271e+00 4.1345649198388102e+01 2.1915289978020978e+00 0 0 0
3016 1 9.2373737002680762e+00 3.8890166688975263e+01 2.1809169060223019e+00 0 0 0
3018 1 1.1396798629128208e+01 4.0122160458721758e+01 2.1682968054404972e+00 0 0 0
3959 1 5.0082653859211819e+00 5.2051299622230054e+01 8.7395012248047081e+01 0 0 0
3961 1 7.1646340948510847e+00 5.3305024686212889e+01 8.7382332064071093e+01 0 0 0
3575 1 6.1807595003564020e-01 4.6283395630636235e+01 2.0984533871411442e+00 0 0 0
3586 1 6.3770670316149269e-01 4.3816519848340114e+01 2.1327301930678142e+00 0 0 0
3588 1 2.7772618173827266e+00 4.5042837916488857e+01 2.1035431904279980e+00 0 0 0
3962 1 8.6085128397849768e+00 5.3287204173955580e+01 8.5356966173599361e+01 0 0 0
3963 1 6.4537358013810451e+00 5.4540565371551885e+01 8.5343956457997223e+01 0 0 0
3964 1 6.4522425399630183e+00 5.2033741196375459e+01 8.5369693708338531e+01 0 0 0
3965 1 8.6101185905572333e+00 5.5793818164531004e+01 8.5330671003744484e+01 0 0 0
3334 1 7.0788325152545095e+00 4.5041361906823070e+01 2.1127612344354163e+00 0 0 0
3335 1 4.9277114563140927e+00 4.6272804220529459e+01 2.0893158163762755e+00 0 0 0
3336 1 4.9263916142581001e+00 4.3806463915248905e+01 2.1239024136166424e+00 0 0 0
4262 1 2.8535321436207366e+00 5.3305024672243640e+01 8.7382332044602606e+01 0 0 0
4263 1 6.9885917874017944e-01 5.4558627631977686e+01 8.7369373241164880e+01 0 0 0
4264 1 6.9716343897552335e-01 5.2051299621274858e+01 8.7395012196734484e+01 0 0 0
2950 1 9.2291533859830430e+00 4.6280469152603025e+01 2.1027215266832622e+00 0 0 0
2983 1 9.2631231471931752e+00 4.3795217567772163e+01 2.0836061335390381e+00 0 0 0
2985 1 1.1397465627165712e+01 4.5040765562522715e+01 2.1052777326565604e+00 0 0 0
4265 1 2.8553517313153596e+00 5.5812100435346842e+01 8.7356142735216977e+01 0 0 0
3573 1 2.7699906067817666e+00 4.7514348548239518e+01 2.0812270645245787e+00 0 0 0
3574 1 6.0996488043146424e-01 4.8751181103710579e+01 2.0692279500569728e+00 0 0 0
3576 1 2.7637226470071505e+00 4.9986658749983768e+01 2.0569473038644186e+00 0 0 0
4266 1 4.2990166764644693e+00 5.5793818107256179e+01 8.5330671006054018e+01 0 0 0
4268 1 2.1426338561739233e+00 5.4540565342892435e+01 8.5343956444429494e+01 0 0 0
4293 1 2.1411405811937310e+00 5.2033741194906725e+01 8.5369693661371713e+01 0 0 0
4295 1 4.2974108878550945e+00 5.3287204162395462e+01 8.5356966186586575e+01 0 0 0
4705 1 1.2919614786676634e+01 5.3287204161740405e+01 8.5356966168860254e+01 -1 0 0
3310 1 7.0738759643721156e+00 4.9984360188601379e+01 2.0546065716366191e+00 0 0 0
3312 1 4.9217820404997958e+00 4.8747956906448259e+01 2.0675436881876288e+00 0 0 0
3337 1 7.0784449338944251e+00 4.7508548428003124e+01 2.0770318983282370e+00 0 0 0
4706 1 1.2921220535437634e+01 5.5793818121359834e+01 8.5330670979649980e+01 -1 0 0
3792 1 1.0762056815718717e+01 4.9526534834967350e+01 8.5394279485034630e+01 0 0 0
3790 1 1.1474157425460836e+01 5.0797460197563268e+01 8.7407407838474384e+01 0 0 0
2948 1 1.1389288339330493e+01 4.7511671787835787e+01 2.0820627826628040e+00 0 0 0
2949 1 9.2316217742472997e+00 4.8746843125007359e+01 2.0655675083039116e+00 0 0 0
2951 1 1.1384000915019532e+01 4.9984545270930290e+01 2.0540460143892809e+00 0 0 0
3788 1 9.3178993241543111e+00 4.9543513754768412e+01 8.7419513721233059e+01 0 0 0
3561 1 2.7589419369241708e+00 5.2459305274653651e+01 2.0335320595023423e+00 0 0 0
3562 1 6.0124323401113933e-01 5.3694871832042963e+01 2.0205396036809264e+00 0 0 0
3563 1 6.0470374239363811e-01 5.1222691696042510e+01 2.0439625245121542e+00 0 0 0
3564 1 2.7559140867121470e+00 5.4929434626835928e+01 2.0156910631999283e+00 0 0 0
3787 1 1.1472793704409185e+01 4.8289467368263963e+01 8.7431325173478584e+01 0 0 0
3958 1 7.1630554892395555e+00 5.0797460206265086e+01 8.7407407880923643e+01 0 0 0
3960 1 5.0067973790241940e+00 4.9543513778177875e+01 8.7419513748327944e+01 0 0 0
3985 1 7.1616917573447019e+00 4.8289467387307482e+01 8.7431325210136222e+01 0 0 0
3986 1 8.6059313078578494e+00 4.8272803334196752e+01 8.5406128268812992e+01 0 0 0
3987 1 6.4509548697205297e+00 4.9526534821078037e+01 8.5394279506677393e+01 0 0 0
3286 1 7.0657073604231231e+00 5.4933964636990986e+01 2.0119996169820680e+00 0 0 0
3288 1 4.9124095566172521e+00 5.3696413834359639e+01 2.0232013042655512e+00 0 0 0
3311 1 4.9166229911461912e+00 5.1222713021742585e+01 2.0445170951206779e+00 0 0 0
3313 1 7.0690594150857002e+00 5.2460053803756693e+01 2.0321212805161251e+00 0 0 0
3989 1 8.6071255603329231e+00 5.0780182732510845e+01 8.5382133130348308e+01 0 0 0
4288 1 2.8505897968643552e+00 4.8289467388206461e+01 8.7431325183646720e+01 0 0 0
4289 1 6.9569543368603581e-01 4.9543513776696841e+01 8.7419513701559922e+01 0 0 0
4291 1 2.8519535566239189e+00 5.0797460212979288e+01 8.7407407876865747e+01 0 0 0
2914 1 1.1379630363410012e+01 5.2459600761498628e+01 2.0303625944955965e+00 0 0 0
2915 1 9.2217532291843192e+00 5.3697475001602243e+01 2.0200163441171877e+00 0 0 0
2916 1 9.2262696687877845e+00 5.1222214461373355e+01 2.0424125663119659e+00 0 0 0
2917 1 1.1374100247504030e+01 5.4934205993894501e+01 2.0084910704833980e+00 0 0 0
4292 1 4.2960235845081485e+00 5.0780182748364723e+01 8.5382133165995597e+01 0 0 0
4294 1 2.1398529345606101e+00 4.9526534855374230e+01 8.5394279479066967e+01 0 0 0
3551 1 2.7423537165232137e+00 5.7390511568453185e+01 2.0098983404039221e+00 0 0 0
3552 1 6.1504574453832173e-01 5.8637599188318760e+01 1.9599076652719365e+00 0 0 0
3553 1 5.8810426777582336e-01 5.6158608149522117e+01 2.0117174481368365e+00 0 0 0
4328 1 4.2948293749623527e+00 4.8272803358039376e+01 8.5406128274473375e+01 0 0 0
4725 1 1.2917033241698160e+01 4.8272803366583602e+01 8.5406128258155505e+01 -1 0 0
4726 1 1.2918227491534285e+01 5.0780182761864914e+01 8.5382133106741634e+01 -1 0 0
3266 1 4.9163538466813836e+00 5.8624280543290467e+01 2.0167148907005954e+00 0 0 0
3287 1 4.9106785325821480e+00 5.6165256639235928e+01 2.0110535642901470e+00 0 0 0
3289 1 7.0676565130206770e+00 5.7401337071667029e+01 2.0014826618976689e+00 0 0 0
3804 1 1.0760001448974970e+01 4.4511161304423943e+01 8.5439853034172216e+01 0 0 0
3803 1 1.0760950057065047e+01 4.7018993741402220e+01 8.5417675628850432e+01 0 0 0
3802 1 1.1471620096016993e+01 4.5781101179421164e+01 8.7454049135071557e+01 0 0 0
2880 1 1.1376324257698126e+01 5.7407785220547723e+01 1.9891421538552900e+00 0 0 0
2881 1 9.2244414143865399e+00 5.8638279078376378e+01 1.9880905399875337e+00 0 0 0
2882 1 9.2205034919694704e+00 5.6171075446979017e+01 2.0002457365399025e+00 0 0 0
3800 1 9.3155463441659254e+00 4.4526793782026481e+01 8.7464954960135756e+01 0 0 0
3789 1 9.3166336382773540e+00 4.7035327723571100e+01 8.7442838174677973e+01 0 0 0
3540 1 2.7577738029621455e+00 6.2339477581431858e+01 1.9378183691913440e+00 0 0 0
3542 1 6.0321146235193346e-01 6.1111274106785892e+01 1.9609958805602203e+00 0 0 0
3554 1 2.7756922679006717e+00 5.9849089949784322e+01 1.9207838009976053e+00 0 0 0
3982 1 7.1605181583870143e+00 4.5781101206248280e+01 8.7454049141842376e+01 0 0 0
3983 1 5.0055317004076292e+00 4.7035327730359079e+01 8.7442838177091105e+01 0 0 0
3984 1 5.0044443961039526e+00 4.4526793797890512e+01 8.7464954943153856e+01 0 0 0
3988 1 6.4498481244042578e+00 4.7018993728477241e+01 8.5417675634068715e+01 0 0 0
3264 1 7.0770349099308927e+00 5.9863087393481706e+01 2.0048984432101999e+00 0 0 0
3265 1 4.9337184747793801e+00 6.1081737337155651e+01 1.9056551395490919e+00 0 0 0
3267 1 7.0905437296509835e+00 6.2319080372946971e+01 1.8896791423280879e+00 0 0 0
4011 1 6.4488994978637084e+00 4.4511161300230718e+01 8.5439853022541797e+01 0 0 0
2847 1 1.1401514287965664e+01 6.2350452959295964e+01 1.9495721077764137e+00 0 0 0
2849 1 9.2381445254804895e+00 6.1101290772737528e+01 1.9868708124404435e+00 0 0 0
2883 1 1.1382417040371831e+01 5.9873653285110322e+01 1.9727024156868211e+00 0 0 0
4013 1 8.6049063576077423e+00 4.5765111402882376e+01 8.5428918161551294e+01 0 0 0
3535 1 6.0341526744487228e-01 6.6052652837840668e+01 1.8868640515713868e+00 0 0 0
3541 1 6.2147170182409728e-01 6.3579867839404820e+01 1.9266800151601193e+00 0 0 0
3543 1 2.7622934027731261e+00 6.4810847671258571e+01 1.8958718213776178e+00 0 0 0
4290 1 6.9442973181956136e-01 4.7035327728210277e+01 8.7442838147485588e+01 0 0 0
4322 1 6.9334243305546717e-01 4.4526793807748618e+01 8.7464954942937112e+01 0 0 0
4324 1 2.8494162076577667e+00 4.5781101219186482e+01 8.7454049110867402e+01 0 0 0
4325 1 4.2938044241271882e+00 4.5765111424306390e+01 8.5428918166060697e+01 0 0 0
3717 1 1.2201245747048276e+01 6.7106777944455544e+01 8.9229522322446684e+01 0 0 0
3744 1 1.0043852478850244e+01 6.5854841786880115e+01 8.9244583080257186e+01 0 0 0
3718 1 1.2197651630105890e+01 6.4602654744915526e+01 8.9259500608685400e+01 0 0 0
3244 1 7.0648357707001219e+00 6.4812032707827399e+01 1.9062132531419731e+00 0 0 0
3245 1 4.9142920346354479e+00 6.6044791817605542e+01 1.8792811255545581e+00 0 0 0
3246 1 4.9114672908629373e+00 6.3574040556493962e+01 1.9206938247998275e+00 0 0 0
4326 1 2.1387461732397051e+00 4.7018993763378617e+01 8.5417675627299317e+01 0 0 0
4327 1 2.1377975552329676e+00 4.4511161316257542e+01 8.5439853005042210e+01 0 0 0
4754 1 1.2916008292900912e+01 4.5765111414282927e+01 8.5428918134246629e+01 -1 0 0
3910 1 5.7327505194567294e+00 6.5854841779268554e+01 8.9244583038094120e+01 0 0 0
3746 1 7.8865496958906691e+00 6.4602654738439256e+01 8.9259500589615755e+01 0 0 0
2818 1 9.2163245289277924e+00 6.6053468249242997e+01 1.8923410047591569e+00 0 0 0
2848 1 9.2440512037270590e+00 6.3558213819289840e+01 1.8770357244642495e+00 0 0 0
2850 1 1.1380259051592063e+01 6.4806228772207106e+01 1.8939179989777886e+00 0 0 0
3816 1 1.0758497466557744e+01 3.9494775419884043e+01 8.5480470520036747e+01 0 0 0
3745 1 7.8901437883565357e+00 6.7106777915113227e+01 8.9229522312568974e+01 0 0 0
3491 1 4.2474481729649538e+00 5.5589135581040940e+00 6.3626708344836445e+00 0 0 0
3493 1 2.0924877546839675e+00 4.3236849193581479e+00 6.3634479310668572e+00 0 0 0
3509 1 2.0938199864473042e+00 1.8535992997371993e+00 6.3643689239018055e+00 0 0 0
3510 1 4.2487958163292010e+00 3.0887193775426089e+00 6.3642159179375586e+00 0 0 0
3512 1 3.5211300028865113e+00 4.3206280597630764e+00 4.3267769826483891e+00 0 0 0
3513 1 3.5224345019138261e+00 1.8509016987139659e+00 4.3276948786859624e+00 0 0 0
3663 1 1.2870834628508449e+01 3.0883900889962286e+00 6.3638719316129286e+00 -1 0 0
3664 1 1.2869584447286845e+01 5.5587376180212154e+00 6.3625128053889437e+00 -1 0 0
3665 1 1.3648990279798792e+00 5.5554783607769567e+00 4.3257997039809464e+00 0 0 0
3677 1 1.3660873378914589e+00 3.0855774318362950e+00 4.3271438133011744e+00 0 0 0
3186 1 8.5598758012211498e+00 3.0884335064914232e+00 6.3640640807593032e+00 0 0 0
3187 1 6.4037031660174559e+00 4.3237413851973621e+00 6.3636038010228688e+00 0 0 0
3188 1 6.4050892076859203e+00 1.8535560162512510e+00 6.3645556919407396e+00 0 0 0
3189 1 8.5585670797388929e+00 5.5588058112684280e+00 6.3626389924896740e+00 0 0 0
3192 1 7.8322678461928046e+00 4.3204382394331633e+00 4.3267628325061347e+00 0 0 0
3202 1 7.8335227420007891e+00 1.8504007764145609e+00 4.3275368797252476e+00 0 0 0
3511 1 5.6773887026646763e+00 3.0856412228672969e+00 4.3274366958192987e+00 0 0 0
3514 1 5.6761003507709136e+00 5.5555497291244951e+00 4.3259622463438250e+00 0 0 0
2748 1 1.0714700851014161e+01 4.3235159601743138e+00 6.3633790835364747e+00 0 0 0
2752 1 1.0715962494271089e+01 1.8531723432703839e+00 6.3641107436458499e+00 0 0 0
2753 1 1.2143229559704270e+01 4.3203434053608474e+00 4.3265366039954776e+00 0 0 0
2754 1 1.2144360822834368e+01 1.8503317432707587e+00 4.3271480679032459e+00 0 0 0
3190 1 9.9871434338271765e+00 5.5553735423058122e+00 4.3258169093071608e+00 0 0 0
3203 1 9.9883258507837560e+00 3.0852871838291116e+00 4.3270979535013456e+00 0 0 0
3470 1 2.0898650701520207e+00 9.2645251574892118e+00 6.3581675447068280e+00 0 0 0
3492 1 2.0912001828796156e+00 6.7940293039319322e+00 6.3614097637723761e+00 0 0 0
3494 1 4.2461161418993409e+00 8.0293076950910542e+00 6.3599872895600855e+00 0 0 0
3496 1 3.5185523946238888e+00 9.2605591579701230e+00 4.3215107178754044e+00 0 0 0
3497 1 3.5198737954826096e+00 6.7905414489014051e+00 4.3247438625512462e+00 0 0 0
3651 1 1.2868296879003346e+01 8.0292235523544537e+00 6.3599226345776154e+00 -1 0 0
3666 1 1.3636531698555296e+00 8.0254957026157445e+00 4.3232340723434213e+00 0 0 0
3168 1 8.5572383226808899e+00 8.0292733091280279e+00 6.3599922117089935e+00 0 0 0
3169 1 6.4009977158181339e+00 9.2645623124871008e+00 6.3582174293146494e+00 0 0 0
3170 1 6.4023641921400349e+00 6.7940877622797586e+00 6.3615044134309295e+00 0 0 0
3174 1 7.8296746280240281e+00 9.2605382132211957e+00 4.3215310046665376e+00 0 0 0
3191 1 7.8310077060526542e+00 6.7904745201125056e+00 4.3247642427153954e+00 0 0 0
3495 1 5.6748004720178429e+00 8.0255411638187919e+00 4.3233141356053189e+00 0 0 0
2736 1 1.0712087299824899e+01 9.2645094913889352e+00 6.3581783880272402e+00 0 0 0
2747 1 1.0713426533275989e+01 6.7939716100172163e+00 6.3614056211888963e+00 0 0 0
2749 1 1.2140746676694919e+01 9.2605033717381779e+00 4.3214763084835717e+00 0 0 0
2750 1 1.2142043470562944e+01 6.7904098188684046e+00 4.3246487727023215e+00 0 0 0
3193 1 9.9858843381482369e+00 8.0254605460243518e+00 4.3232583164079195e+00 0 0 0
3468 1 4.2447227858319678e+00 1.0499830174902039e+01 6.3561034673325079e+00 0 0 0
3469 1 2.0884307299896112e+00 1.1735111913210995e+01 6.3536880335978285e+00 0 0 0
3471 1 4.2432222481527377e+00 1.2970432351526819e+01 6.3509909311476456e+00 0 0 0
3474 1 3.5171056583852001e+00 1.1730646735831710e+01 4.3170387834603705e+00 0 0 0
3639 1 1.2865424856359898e+01 1.2970426544500549e+01 6.3509807318341922e+00 -1 0 0
3652 1 1.2866920321645164e+01 1.0499795911489059e+01 6.3560789160208646e+00 -1 0 0